# Example configuration.
# Everything after '#' is ignored
# Format of the variables:
#    [variable]: [value]
# Whitespaces are ignored in the following locations:
# - Before the variable
# - After the ':'
# - After the value

# The CPU sensor to use
CPUThermalZone: /sys/devices/pci0000:00/0000:00:18.3/hwmon/hwmon2/temp1_input

# The command to execute on suspend
SuspendCommand: ~/.config/scripts/sys.sh suspend

# The command to execute on lock
LockCommand: ~/.config/scripts/sys.sh lock

# The command to execute on exit
ExitCommand: killall Hyprland

# The folder, where the battery sensors reside
BatteryFolder: /sys/class/power_supply/BAT1

# Overrides the icon of the nth (in this case the first) workspace
# WorkspaceSymbol-1: 

# The default symbol for the workspaces
DefaultWorkspaceSymbol: 

# Scroll through the workspaces of the current monitor instead of all workspaces
WorkspaceScrollOnMonitor: true

# When true: Scroll up -> Next workspace instead of previous workspace. Analogous with scroll down
WorkspaceScrollInvert: false

# Use Hyprland IPC instead of the ext_workspace protocol for workspace polling.
# Hyprland IPC is *slightly* less performant (+0.1% one core), but way less bug prone,
# since the protocol is not as feature complete as Hyprland IPC.
UseHyprlandIPC: false

# Forces the time to be centered.
# This can cause issues, if there is not enough space on screen (e.g. when opening the text)
CenterTime: true

# Adds a audio input(aka. microphone) widget
AudioInput: false

# Sets the audio slider to be on reveal (Just like the sensors) when true. Only affects the bar.
AudioRevealer: false

# Sets the rate of change of the slider on each scroll. In Percent
AudioScrollSpeed: 5

# Command that is run to check if there are out-of-date packages.
# The script should return *ONLY* a number. If it doesn't output a number, updates are no longer checked.
# Default value is applicable for Arch Linux. (See src/Config.h for explanation on the default command)
CheckPackagesCommand: pac="$(checkupdates)"; if [ $? -eq 127 ] ; then exit 127; fi; echo -n "$pac" | wc -l

# How often to check for updates. In seconds
CheckUpdateInterval: 300

# Limits the range of the audio slider. Only works for audio output.
# Slider "empty" is AudioMinVolume, Slider "full" is AudioMaxVolume
# AudioMinVolume: 30 # Audio can't get below 30%
# AudioMaxVolume: 120 # Audio can't get above 120%

# The network adapter to use. You can query /sys/class/net for all possible values
NetworkAdapter: eno1

# Disables the network widget when set to false
NetworkWidget: true

# Enables tray icons
EnableSNI: true

# SNIIconSize sets the icon size for a SNI icon.
# SNIPaddingTop Can be used to push the Icon down. Negative values are allowed
# For both: The first parameter is a filter of the tooltip(The text that pops up, when the icon is hovered) of the icon

# Scale everything down to 25 pixels ('*' as filter means everything)
SNIIconSize: *, 25
# Explicitly make OBS a bit smaller than default
SNIIconSize: OBS, 23
# Nudges the Discord icon a bit down
# SNIPaddingTop: Discord, 5

# These set the range for the network widget. The widget changes colors at six intervals:
#    - Below Min...Bytes ("under")
#    - Between ]0%;25%]. 0% = Min...Bytes; 100% = Max...Bytes ("low")
#    - Between ]25%;50%]. 0% = Min...Bytes; 100% = Max...Bytes ("mid-low")
#    - Between ]50%;75%]. 0% = Min...Bytes; 100% = Max...Bytes ("mid-high")
#    - Between ]75%;100%]. 0% = Min...Bytes; 100% = Max...Bytes ("high")
#    - Above Max...Bytes ("over")
MinDownloadBytes: 0
MaxDownloadBytes: 10485760 # 10 * 1024 * 1024 = 10 MiB
MinUploadBytes:   0
MaxUploadBytes:   5242880    # 5 * 1024 * 1024 = 5 MiB
